16
Properties=species:S:1:pos:R:3:forces:R:3 energy=-8405.672592045916 pbc="F F F"
C        0.02181100       0.08641000      -0.04409500      -0.00116425       0.00063013      -0.00094776
C       -0.04325300       0.01570000       1.48878400       0.00035589      -0.00036942       0.00044557
C        1.43733800       0.03605100       1.86086100      -0.00141138       0.00116795       0.00035219
O        2.12076300      -0.66689800       0.79743900       0.00099275      -0.00165738      -0.00148594
C        1.24827000      -0.77530700      -0.35377000       0.00160128       0.00084728       0.00176445
H        0.18779900       1.11929100      -0.36988600      -0.00022194       0.00005224       0.00019206
H       -0.88070100      -0.28570300      -0.53626100       0.00019119      -0.00040119       0.00024909
H       -0.50266400      -0.92581300       1.81002700      -0.00007163      -0.00006839       0.00006109
H       -0.59961900       0.84200800       1.93935200       0.00012660      -0.00002134       0.00006433
H        1.66516600      -0.47811900       2.79898100      -0.00000751      -0.00014372      -0.00023186
H        1.82268400       1.06359500       1.91830000       0.00018527      -0.00025577       0.00001034
H        0.97630500      -1.83004000      -0.49075300      -0.00050383      -0.00016537      -0.00000319
H        1.79901100      -0.44345300      -1.24037500      -0.00005507      -0.00037739      -0.00015319
O        2.67990000      -3.02756600       2.21795600       0.00015385      -0.00019654       0.00037404
H        3.57889000      -2.88943900       2.54444300      -0.00004433       0.00008485      -0.00012537
H        2.54253800      -2.27190300       1.61306900      -0.00012701       0.00087407      -0.00056580
